 Entering Gaussian System, Link 0=/opt/cluster/programs/g16-c.01/g16/g16
 Input=/home/kaeser/teaching/vpt2_tutorial/tutorial_vpt2_sena/opt_freq/water_optfreq.com
 Output=/scratch/kaeser/water_optfreq/water_optfreq.out
 Initial command:
 /opt/cluster/programs/g16-c.01/g16/l1.exe "/scratch/kaeser/water_optfreq/Gau-117029.inp" -scrdir="/scratch/kaeser/water_optfreq/"
 Entering Link 1 = /opt/cluster/programs/g16-c.01/g16/l1.exe PID=    117030.
  
 Copyright (c) 1988-2019, Gaussian, Inc.  All Rights Reserved.
  
 This is part of the Gaussian(R) 16 program.  It is based on
 the Gaussian(R) 09 system (copyright 2009, Gaussian, Inc.),
 the Gaussian(R) 03 system (copyright 2003, Gaussian, Inc.),
 the Gaussian(R) 98 system (copyright 1998, Gaussian, Inc.),
 the Gaussian(R) 94 system (copyright 1995, Gaussian, Inc.),
 the Gaussian 92(TM) system (copyright 1992, Gaussian, Inc.),
 the Gaussian 90(TM) system (copyright 1990, Gaussian, Inc.),
 the Gaussian 88(TM) system (copyright 1988, Gaussian, Inc.),
 the Gaussian 86(TM) system (copyright 1986, Carnegie Mellon
 University), and the Gaussian 82(TM) system (copyright 1983,
 Carnegie Mellon University). Gaussian is a federally registered
 trademark of Gaussian, Inc.
  
 This software contains proprietary and confidential information,
 including trade secrets, belonging to Gaussian, Inc.
  
 This software is provided under written license and may be
 used, copied, transmitted, or stored only in accord with that
 written license.
  
 The following legend is applicable only to US Government
 contracts under FAR:
  
                    RESTRICTED RIGHTS LEGEND
  
 Use, reproduction and disclosure by the US Government is
 subject to restrictions as set forth in subparagraphs (a)
 and (c) of the Commercial Computer Software - Restricted
 Rights clause in FAR 52.227-19.
  
 Gaussian, Inc.
 340 Quinnipiac St., Bldg. 40, Wallingford CT 06492
  
  
 ---------------------------------------------------------------
 Warning -- This program may not be used in any manner that
 competes with the business of Gaussian, Inc. or will provide
 assistance to any competitor of Gaussian, Inc.  The licensee
 of this program is prohibited from giving any competitor of
 Gaussian, Inc. access to this program.  By using this program,
 the user acknowledges that Gaussian, Inc. is engaged in the
 business of creating and licensing software in the field of
 computational chemistry and represents and warrants to the
 licensee that it is not a competitor of Gaussian, Inc. and that
 it will not use this program in any manner prohibited above.
 ---------------------------------------------------------------
  

 Cite this work as:
 Gaussian 16, Revision C.01,
 M. J. Frisch, G. W. Trucks, H. B. Schlegel, G. E. Scuseria, 
 M. A. Robb, J. R. Cheeseman, G. Scalmani, V. Barone, 
 G. A. Petersson, H. Nakatsuji, X. Li, M. Caricato, A. V. Marenich, 
 J. Bloino, B. G. Janesko, R. Gomperts, B. Mennucci, H. P. Hratchian, 
 J. V. Ortiz, A. F. Izmaylov, J. L. Sonnenberg, D. Williams-Young, 
 F. Ding, F. Lipparini, F. Egidi, J. Goings, B. Peng, A. Petrone, 
 T. Henderson, D. Ranasinghe, V. G. Zakrzewski, J. Gao, N. Rega, 
 G. Zheng, W. Liang, M. Hada, M. Ehara, K. Toyota, R. Fukuda, 
 J. Hasegawa, M. Ishida, T. Nakajima, Y. Honda, O. Kitao, H. Nakai, 
 T. Vreven, K. Throssell, J. A. Montgomery, Jr., J. E. Peralta, 
 F. Ogliaro, M. J. Bearpark, J. J. Heyd, E. N. Brothers, K. N. Kudin, 
 V. N. Staroverov, T. A. Keith, R. Kobayashi, J. Normand, 
 K. Raghavachari, A. P. Rendell, J. C. Burant, S. S. Iyengar, 
 J. Tomasi, M. Cossi, J. M. Millam, M. Klene, C. Adamo, R. Cammi, 
 J. W. Ochterski, R. L. Martin, K. Morokuma, O. Farkas, 
 J. B. Foresman, and D. J. Fox, Gaussian, Inc., Wallingford CT, 2019.
 
 ******************************************
 Gaussian 16:  ES64L-G16RevC.01  3-Jul-2019
                21-Sep-2023 
 ******************************************
 %chk=water_optfreq.chk
 --------------------------------------------
 # opt freq mp2/aug-cc-pvtz geom=connectivity
 --------------------------------------------
 1/18=20,19=15,38=1,57=2/1,3;
 2/9=110,12=2,17=6,18=5,40=1/2;
 3/5=16,6=1,7=10,11=9,25=1,30=1,71=1/1,2,3;
 4//1;
 5/5=2,38=5/2;
 8/6=4,10=1/1;
 9/15=2,16=-3/6;
 10/5=1/2;
 6/7=2,8=2,9=2,10=2/1;
 7/12=2/1,2,3,16;
 1/18=20,19=15/3(2);
 2/9=110/2;
 99//99;
 2/9=110/2;
 3/5=16,6=1,7=10,11=9,25=1,30=1,71=1/1,2,3;
 4/5=5,16=3,69=1/1;
 5/5=2,38=5/2;
 8/6=4,10=1/1;
 9/15=2,16=-3/6;
 10/5=1/2;
 7/12=2/1,2,3,16;
 1/18=20,19=15/3(-8);
 2/9=110/2;
 6/7=2,8=2,9=2,10=2/1;
 99/9=10/99;
 -------------------
 Title Card Required
 -------------------
 Symbolic Z-matrix:
 Charge =  0 Multiplicity = 1
 O                    -1.89597   0.83885   0.01098 
 H                    -0.93597   0.83885   0.01098 
 H                    -2.21643   1.74379   0.01098 
 

 GradGradGradGradGradGradGradGradGradGradGradGradGradGradGradGradGradGrad
 Berny optimization.
 Initialization pass.
                           ----------------------------
                           !    Initial Parameters    !
                           ! (Angstroms and Degrees)  !
 --------------------------                            --------------------------
 ! Name  Definition              Value          Derivative Info.                !
 --------------------------------------------------------------------------------
 ! R1    R(1,2)                  0.96           estimate D2E/DX2                !
 ! R2    R(1,3)                  0.96           estimate D2E/DX2                !
 ! A1    A(2,1,3)              109.5            estimate D2E/DX2                !
 --------------------------------------------------------------------------------
 Trust Radius=3.00D-01 FncErr=1.00D-07 GrdErr=1.00D-07 EigMax=2.50D+02 EigMin=1.00D-04
 Number of steps in this run=     20 maximum allowed number of steps=    100.
 GradGradGradGradGradGradGradGradGradGradGradGradGradGradGradGradGradGrad

                          Input orientation:                          
 ---------------------------------------------------------------------
 Center     Atomic      Atomic             Coordinates (Angstroms)
 Number     Number       Type             X           Y           Z
 ---------------------------------------------------------------------
      1          8           0       -1.895973    0.838854    0.010981
      2          1           0       -0.935973    0.838854    0.010981
      3          1           0       -2.216428    1.743790    0.010981
 ---------------------------------------------------------------------
                    Distance matrix (angstroms):
                    1          2          3
     1  O    0.000000
     2  H    0.960000   0.000000
     3  H    0.960000   1.567952   0.000000
 Stoichiometry    H2O
 Framework group  C2V[C2(O),SGV(H2)]
 Deg. of freedom     2
 Full point group                 C2V     NOp   4
 Largest Abelian subgroup         C2V     NOp   4
 Largest concise Abelian subgroup C2      NOp   2
                         Standard orientation:                         
 ---------------------------------------------------------------------
 Center     Atomic      Atomic             Coordinates (Angstroms)
 Number     Number       Type             X           Y           Z
 ---------------------------------------------------------------------
      1          8           0        0.000000    0.000000    0.110812
      2          1           0       -0.000000   -0.783976   -0.443248
      3          1           0        0.000000    0.783976   -0.443248
 ---------------------------------------------------------------------
 Rotational constants (GHZ):         919.6759372         407.9403359         282.5913770
 Standard basis: Aug-CC-pVTZ (5D, 7F)
 There are    42 symmetry adapted cartesian basis functions of A1  symmetry.
 There are    12 symmetry adapted cartesian basis functions of A2  symmetry.
 There are    20 symmetry adapted cartesian basis functions of B1  symmetry.
 There are    31 symmetry adapted cartesian basis functions of B2  symmetry.
 There are    35 symmetry adapted basis functions of A1  symmetry.
 There are    12 symmetry adapted basis functions of A2  symmetry.
 There are    18 symmetry adapted basis functions of B1  symmetry.
 There are    27 symmetry adapted basis functions of B2  symmetry.
    92 basis functions,   126 primitive gaussians,   105 cartesian basis functions
     5 alpha electrons        5 beta electrons
       nuclear repulsion energy         9.1571160179 Hartrees.
 NAtoms=    3 NActive=    3 NUniq=    2 SFac= 2.25D+00 NAtFMM=   60 NAOKFM=F Big=F
 Integral buffers will be    131072 words long.
 Raffenetti 1 integral format.
 Two-electron integral symmetry is turned on.
 One-electron integrals computed using PRISM.
 NBasis=    92 RedAO= T EigKep=  3.77D-04  NBF=    35    12    18    27
 NBsUse=    92 1.00D-06 EigRej= -1.00D+00 NBFU=    35    12    18    27
 ExpMin= 2.53D-02 ExpMax= 1.53D+04 ExpMxC= 5.22D+02 IAcc=3 IRadAn=         5 AccDes= 0.00D+00
 Harris functional with IExCor=  205 and IRadAn=       5 diagonalized for initial guess.
 HarFok:  IExCor=  205 AccDes= 0.00D+00 IRadAn=         5 IDoV= 1 UseB2=F ITyADJ=14
 ICtDFT=  3500011 ScaDFX=  1.000000  1.000000  1.000000  1.000000
 FoFCou: FMM=F IPFlag=           0 FMFlag=      100000 FMFlg1=           0
         NFxFlg=           0 DoJE=T BraDBF=F KetDBF=T FulRan=T
         wScrn=  0.000000 ICntrl=       500 IOpCl=  0 I1Cent=   200000004 NGrid=           0
         NMat0=    1 NMatS0=      1 NMatT0=    0 NMatD0=    1 NMtDS0=    0 NMtDT0=    0
 Petite list used in FoFCou.
 Initial guess orbital symmetries:
       Occupied  (A1) (A1) (B2) (A1) (B1)
       Virtual   (A1) (B2) (A1) (B1) (A1) (B2) (B2) (A1) (A2) (A1)
                 (B1) (B2) (A1) (B2) (B2) (A1) (A1) (B1) (A2) (A1)
                 (A1) (B1) (B1) (B2) (A2) (B2) (A1) (B2) (A1) (B1)
                 (B2) (A1) (A2) (B2) (A2) (A1) (B1) (A1) (B2) (B2)
                 (A1) (B1) (A2) (A1) (A1) (B1) (B2) (A1) (B1) (B2)
                 (A1) (A2) (B2) (B2) (A1) (B1) (A2) (A1) (B2) (B1)
                 (B1) (A2) (B2) (A1) (A1) (B2) (B2) (A2) (A1) (B2)
                 (B1) (A1) (A1) (B2) (B1) (A1) (B1) (A1) (B1) (A2)
                 (A2) (B2) (A1) (B2) (A1) (B2) (A1)
 The electronic state of the initial guess is 1-A1.
 Keep R1 ints in memory in symmetry-blocked form, NReq=11496777.
 Requested convergence on RMS density matrix=1.00D-08 within 128 cycles.
 Requested convergence on MAX density matrix=1.00D-06.
 Requested convergence on             energy=1.00D-06.
 No special actions if energy rises.
 SCF Done:  E(RHF) =  -76.0600661841     A.U. after   10 cycles
            NFock= 10  Conv=0.38D-08     -V/T= 2.0016
 ExpMin= 2.53D-02 ExpMax= 1.53D+04 ExpMxC= 5.22D+02 IAcc=3 IRadAn=         5 AccDes= 0.00D+00
 HarFok:  IExCor=  205 AccDes= 0.00D+00 IRadAn=         5 IDoV=-2 UseB2=F ITyADJ=14
 ICtDFT= 12500011 ScaDFX=  1.000000  1.000000  1.000000  1.000000
 Range of M.O.s used for correlation:     2    92
 NBasis=    92 NAE=     5 NBE=     5 NFC=     1 NFV=     0
 NROrb=     91 NOA=     4 NOB=     4 NVA=    87 NVB=    87

 **** Warning!!: The largest alpha MO coefficient is  0.16034587D+02

 Fully direct method using O(ONN) memory.
 JobTyp=1 Pass  1:  I=   2 to   5 NPSUse=  1 ParTrn=F ParDer=F DoDerP=T.
 Spin components of T(2) and E(2):
     alpha-alpha T2 =       0.8123009712D-02 E2=     -0.3255738426D-01
     alpha-beta  T2 =       0.4717558875D-01 E2=     -0.2031420635D+00
     beta-beta   T2 =       0.8123009712D-02 E2=     -0.3255738426D-01
 ANorm=    0.1031223355D+01
 E2 =    -0.2682568320D+00 EUMP2 =    -0.76328323016059D+02
          IDoAtm=111
          Differentiating once with respect to electric field.
                with respect to dipole field.
          Differentiating once with respect to nuclear coordinates.
 Keep R1 ints in memory in symmetry-blocked form, NReq=11497517.
          There are     1 degrees of freedom in the 1st order CPHF.  IDoFFX=0 NUNeed=     1.
 LinEq1:  Iter=  0 NonCon=     1 RMS=4.62D-03 Max=4.90D-02 NDo=     1
 AX will form     1 AO Fock derivatives at one time.
 LinEq1:  Iter=  1 NonCon=     1 RMS=6.15D-04 Max=4.64D-03 NDo=     1
 LinEq1:  Iter=  2 NonCon=     1 RMS=2.24D-04 Max=1.91D-03 NDo=     1
 LinEq1:  Iter=  3 NonCon=     1 RMS=5.99D-05 Max=4.56D-04 NDo=     1
 LinEq1:  Iter=  4 NonCon=     1 RMS=9.10D-06 Max=5.76D-05 NDo=     1
 LinEq1:  Iter=  5 NonCon=     1 RMS=1.70D-06 Max=1.16D-05 NDo=     1
 LinEq1:  Iter=  6 NonCon=     1 RMS=2.45D-07 Max=1.73D-06 NDo=     1
 LinEq1:  Iter=  7 NonCon=     1 RMS=2.71D-08 Max=2.37D-07 NDo=     1
 LinEq1:  Iter=  8 NonCon=     1 RMS=3.32D-09 Max=3.47D-08 NDo=     1
 LinEq1:  Iter=  9 NonCon=     1 RMS=3.25D-10 Max=2.15D-09 NDo=     1
 LinEq1:  Iter= 10 NonCon=     0 RMS=2.41D-11 Max=2.02D-10 NDo=     1
 Linear equations converged to 1.000D-10 1.000D-09 after    10 iterations.
 End of Minotr F.D. properties file   721 does not exist.
 End of Minotr F.D. properties file   722 does not exist.
 End of Minotr F.D. properties file   788 does not exist.

 **********************************************************************

            Population analysis using the SCF Density.

 **********************************************************************

 Orbital symmetries:
       Occupied  (A1) (A1) (B2) (A1) (B1)
       Virtual   (A1) (B2) (A1) (B1) (A1) (B2) (B2) (A1) (A2) (B1)
                 (A1) (B2) (A1) (B2) (B2) (A1) (A1) (A2) (B1) (A1)
                 (B1) (A1) (B2) (A2) (B1) (B2) (A1) (A1) (B2) (B1)
                 (B2) (A2) (A1) (B2) (A2) (A1) (B1) (B2) (A1) (B2)
                 (A1) (B1) (A2) (A1) (B1) (A1) (B2) (A1) (B2) (B1)
                 (A1) (B2) (A2) (B2) (A1) (A2) (B1) (A1) (B2) (B1)
                 (A2) (B1) (A1) (B2) (A1) (B2) (B2) (A2) (B2) (A1)
                 (B1) (A1) (A1) (B2) (B1) (A1) (B1) (B1) (A1) (A2)
                 (A2) (B2) (A1) (B2) (A1) (B2) (A1)
 The electronic state is 1-A1.
 Alpha  occ. eigenvalues --  -20.56541  -1.34869  -0.72564  -0.57474  -0.50863
 Alpha virt. eigenvalues --    0.02971   0.04737   0.13662   0.15781   0.17389
 Alpha virt. eigenvalues --    0.18179   0.22899   0.24416   0.26340   0.30577
 Alpha virt. eigenvalues --    0.31394   0.36499   0.43723   0.46633   0.60281
 Alpha virt. eigenvalues --    0.65276   0.71167   0.71844   0.73094   0.82631
 Alpha virt. eigenvalues --    0.84295   0.89018   0.91210   0.91959   0.92570
 Alpha virt. eigenvalues --    0.92717   0.97352   1.02206   1.04456   1.08526
 Alpha virt. eigenvalues --    1.11511   1.17073   1.17503   1.26069   1.51476
 Alpha virt. eigenvalues --    1.57096   1.59701   1.77255   1.79668   2.00431
 Alpha virt. eigenvalues --    2.11268   2.25794   2.31831   2.31986   2.40940
 Alpha virt. eigenvalues --    2.41114   2.43710   2.46955   2.69184   2.70565
 Alpha virt. eigenvalues --    2.76449   2.86735   2.88112   3.63721   3.77009
 Alpha virt. eigenvalues --    4.00253   4.08740   4.21645   4.22180   4.34369
 Alpha virt. eigenvalues --    4.38176   4.39498   4.43246   4.48376   4.69720
 Alpha virt. eigenvalues --    4.79275   5.11524   5.16876   5.31392   5.31588
 Alpha virt. eigenvalues --    5.49963   5.72923   6.11952   6.53669   6.70563
 Alpha virt. eigenvalues --    6.83724   7.14165   7.25361   7.28217   7.29277
 Alpha virt. eigenvalues --    7.36509   7.39754   7.55021   7.87420   7.96683
 Alpha virt. eigenvalues --    8.76157  15.79509
          Condensed to atoms (all electrons):
               1          2          3
     1  O    7.895525   0.273797   0.273797
     2  H    0.273797   0.487981   0.016662
     3  H    0.273797   0.016662   0.487981
 Mulliken charges:
               1
     1  O   -0.443119
     2  H    0.221560
     3  H    0.221560
 Sum of Mulliken charges =  -0.00000
 Mulliken charges with hydrogens summed into heavy atoms:
               1
     1  O   -0.000000
 Electronic spatial extent (au):  <R**2>=             19.5195
 Charge=             -0.0000 electrons
 Dipole moment (field-independent basis, Debye):
    X=              0.0000    Y=             -0.0000    Z=             -1.9004  Tot=              1.9004
 Quadrupole moment (field-independent basis, Debye-Ang):
   XX=             -7.5733   YY=             -4.0198   ZZ=             -6.3978
   XY=              0.0000   XZ=             -0.0000   YZ=              0.0000
 Traceless Quadrupole moment (field-independent basis, Debye-Ang):
   XX=             -1.5763   YY=              1.9772   ZZ=             -0.4008
   XY=              0.0000   XZ=             -0.0000   YZ=              0.0000
 Octapole moment (field-independent basis, Debye-Ang**2):
  XXX=             -0.0000  YYY=              0.0000  ZZZ=             -1.0417  XYY=              0.0000
  XXY=              0.0000  XXZ=             -0.2423  XZZ=             -0.0000  YZZ=              0.0000
  YYZ=             -1.4210  XYZ=             -0.0000
 Hexadecapole moment (field-independent basis, Debye-Ang**3):
 XXXX=             -6.7653 YYYY=             -5.7956 ZZZZ=             -7.2498 XXXY=             -0.0000
 XXXZ=              0.0000 YYYX=              0.0000 YYYZ=              0.0000 ZZZX=              0.0000
 ZZZY=              0.0000 XXYY=             -2.4765 XXZZ=             -2.3750 YYZZ=             -1.9015
 XXYZ=             -0.0000 YYXZ=             -0.0000 ZZXY=             -0.0000
 N-N= 9.157116017938D+00 E-N=-1.989269546888D+02  KE= 7.593881385225D+01
 Symmetry A1   KE= 6.792179401705D+01
 Symmetry A2   KE= 1.431855833808D-20
 Symmetry B1   KE= 4.460912503132D+00
 Symmetry B2   KE= 3.556107332068D+00
 Calling FoFJK, ICntrl=  10002127 FMM=F ISym2X=1 I1Cent= 0 IOpClX= 0 NMat=1 NMatS=1 NMatT=0.
 ***** Axes restored to original set *****
 -------------------------------------------------------------------
 Center     Atomic                   Forces (Hartrees/Bohr)
 Number     Number              X              Y              Z
 -------------------------------------------------------------------
      1        8          -0.006337951   -0.008967993    0.000000000
      2        1          -0.001468739    0.007761609   -0.000000000
      3        1           0.007806690    0.001206384   -0.000000000
 -------------------------------------------------------------------
 Cartesian Forces:  Max     0.008967993 RMS     0.005221686

 GradGradGradGradGradGradGradGradGradGradGradGradGradGradGradGradGradGrad
 Berny optimization.
 FormGI is forming the generalized inverse of G from B-inverse, IUseBI=4.
 Internal  Forces:  Max     0.014080623 RMS     0.008217427
 Search for a local minimum.
 Step number   1 out of a maximum of   20
 All quantities printed in internal units (Hartrees-Bohrs-Radians)
 Mixed Optimization -- RFO/linear search
 Second derivative matrix not updated -- first step.
 The second derivative matrix:
                          R1        R2        A1
           R1           0.55473
           R2           0.00000   0.55473
           A1           0.00000   0.00000   0.16000
 ITU=  0
     Eigenvalues ---    0.16000   0.55473   0.55473
 RFO step:  Lambda=-1.23740053D-03 EMin= 1.60000000D-01
 Linear search not attempted -- first point.
 Iteration  1 RMS(Cart)=  0.04911846 RMS(Int)=  0.00141330
 Iteration  2 RMS(Cart)=  0.00121408 RMS(Int)=  0.00000002
 Iteration  3 RMS(Cart)=  0.00000002 RMS(Int)=  0.00000000
 ClnCor:  largest displacement from symmetrization is 1.60D-15 for atom     3.
 Variable       Old X    -DE/DX   Delta X   Delta X   Delta X     New X
                                 (Linear)    (Quad)   (Total)
    R1        1.81414  -0.00147   0.00000  -0.00264  -0.00264   1.81150
    R2        1.81414  -0.00147   0.00000  -0.00264  -0.00264   1.81150
    A1        1.91114  -0.01408   0.00000  -0.08733  -0.08733   1.82381
         Item               Value     Threshold  Converged?
 Maximum Force            0.014081     0.000450     NO 
 RMS     Force            0.008217     0.000300     NO 
 Maximum Displacement     0.052120     0.001800     NO 
 RMS     Displacement     0.049696     0.001200     NO 
 Predicted change in Energy=-6.234270D-04
 GradGradGradGradGradGradGradGradGradGradGradGradGradGradGradGradGradGrad

                          Input orientation:                          
 ---------------------------------------------------------------------
 Center     Atomic      Atomic             Coordinates (Angstroms)
 Number     Number       Type             X           Y           Z
 ---------------------------------------------------------------------
      1          8           0       -1.908608    0.820977    0.010981
      2          1           0       -0.950919    0.862820    0.010981
      3          1           0       -2.188847    1.737701    0.010981
 ---------------------------------------------------------------------
                    Distance matrix (angstroms):
                    1          2          3
     1  O    0.000000
     2  H    0.958602   0.000000
     3  H    0.958602   1.515877   0.000000
 Stoichiometry    H2O
 Framework group  C2V[C2(O),SGV(H2)]
 Deg. of freedom     2
 Full point group                 C2V     NOp   4
 Largest Abelian subgroup         C2V     NOp   4
 Largest concise Abelian subgroup C2      NOp   2
                         Standard orientation:                         
 ---------------------------------------------------------------------
 Center     Atomic      Atomic             Coordinates (Angstroms)
 Number     Number       Type             X           Y           Z
 ---------------------------------------------------------------------
      1          8           0        0.000000    0.000000    0.117379
      2          1           0        0.000000   -0.757938   -0.469517
      3          1           0        0.000000    0.757938   -0.469517
 ---------------------------------------------------------------------
 Rotational constants (GHZ):         819.6430841         436.4497083         284.7982148
 Standard basis: Aug-CC-pVTZ (5D, 7F)
 There are    42 symmetry adapted cartesian basis functions of A1  symmetry.
 There are    12 symmetry adapted cartesian basis functions of A2  symmetry.
 There are    20 symmetry adapted cartesian basis functions of B1  symmetry.
 There are    31 symmetry adapted cartesian basis functions of B2  symmetry.
 There are    35 symmetry adapted basis functions of A1  symmetry.
 There are    12 symmetry adapted basis functions of A2  symmetry.
 There are    18 symmetry adapted basis functions of B1  symmetry.
 There are    27 symmetry adapted basis functions of B2  symmetry.
    92 basis functions,   126 primitive gaussians,   105 cartesian basis functions
     5 alpha electrons        5 beta electrons
       nuclear repulsion energy         9.1815719056 Hartrees.
 NAtoms=    3 NActive=    3 NUniq=    2 SFac= 2.25D+00 NAtFMM=   60 NAOKFM=F Big=F
 Integral buffers will be    131072 words long.
 Raffenetti 1 integral format.
 Two-electron integral symmetry is turned on.
 One-electron integrals computed using PRISM.
 NBasis=    92 RedAO= T EigKep=  3.86D-04  NBF=    35    12    18    27
 NBsUse=    92 1.00D-06 EigRej= -1.00D+00 NBFU=    35    12    18    27
 Initial guess from the checkpoint file:  "water_optfreq.chk"
 B after Tr=    -0.000000    0.000000    0.000000
         Rot=    1.000000   -0.000000   -0.000000    0.000000 Ang=   0.00 deg.
 Initial guess orbital symmetries:
       Occupied  (A1) (A1) (B2) (A1) (B1)
       Virtual   (A1) (B2) (A1) (B1) (A1) (B2) (B2) (A1) (A2) (B1)
                 (A1) (B2) (A1) (B2) (B2) (A1) (A1) (A2) (B1) (A1)
                 (B1) (A1) (B2) (A2) (B1) (B2) (A1) (A1) (B2) (B1)
                 (B2) (A2) (A1) (B2) (A2) (A1) (B1) (B2) (A1) (B2)
                 (A1) (B1) (A2) (A1) (B1) (A1) (B2) (A1) (B2) (B1)
                 (A1) (B2) (A2) (B2) (A1) (A2) (B1) (A1) (B2) (B1)
                 (A2) (B1) (A1) (B2) (A1) (B2) (B2) (A2) (B2) (A1)
                 (B1) (A1) (A1) (B2) (B1) (A1) (B1) (B1) (A1) (A2)
                 (A2) (B2) (A1) (B2) (A1) (B2) (A1)
 ExpMin= 2.53D-02 ExpMax= 1.53D+04 ExpMxC= 5.22D+02 IAcc=3 IRadAn=         5 AccDes= 0.00D+00
 Harris functional with IExCor=  205 and IRadAn=       5 diagonalized for initial guess.
 HarFok:  IExCor=  205 AccDes= 0.00D+00 IRadAn=         5 IDoV= 1 UseB2=F ITyADJ=14
 ICtDFT=  3500011 ScaDFX=  1.000000  1.000000  1.000000  1.000000
 FoFCou: FMM=F IPFlag=           0 FMFlag=      100000 FMFlg1=           0
         NFxFlg=           0 DoJE=T BraDBF=F KetDBF=T FulRan=T
         wScrn=  0.000000 ICntrl=       500 IOpCl=  0 I1Cent=   200000004 NGrid=           0
         NMat0=    1 NMatS0=      1 NMatT0=    0 NMatD0=    1 NMtDS0=    0 NMtDT0=    0
 Petite list used in FoFCou.
 Keep R1 ints in memory in symmetry-blocked form, NReq=11496777.
 Requested convergence on RMS density matrix=1.00D-08 within 128 cycles.
 Requested convergence on MAX density matrix=1.00D-06.
 Requested convergence on             energy=1.00D-06.
 No special actions if energy rises.
 SCF Done:  E(RHF) =  -76.0605173065     A.U. after    8 cycles
            NFock=  8  Conv=0.87D-08     -V/T= 2.0014
 ExpMin= 2.53D-02 ExpMax= 1.53D+04 ExpMxC= 5.22D+02 IAcc=3 IRadAn=         5 AccDes= 0.00D+00
 HarFok:  IExCor=  205 AccDes= 0.00D+00 IRadAn=         5 IDoV=-2 UseB2=F ITyADJ=14
 ICtDFT= 12500011 ScaDFX=  1.000000  1.000000  1.000000  1.000000
 Range of M.O.s used for correlation:     2    92
 NBasis=    92 NAE=     5 NBE=     5 NFC=     1 NFV=     0
 NROrb=     91 NOA=     4 NOB=     4 NVA=    87 NVB=    87

 **** Warning!!: The largest alpha MO coefficient is  0.15975537D+02

 Fully direct method using O(ONN) memory.
 JobTyp=1 Pass  1:  I=   2 to   5 NPSUse=  1 ParTrn=F ParDer=F DoDerP=T.
 Spin components of T(2) and E(2):
     alpha-alpha T2 =       0.8133369781D-02 E2=     -0.3258069873D-01
     alpha-beta  T2 =       0.4722127125D-01 E2=     -0.2032975725D+00
     beta-beta   T2 =       0.8133369781D-02 E2=     -0.3258069873D-01
 ANorm=    0.1031255551D+01
 E2 =    -0.2684589699D+00 EUMP2 =    -0.76328976276467D+02
          IDoAtm=111
          Differentiating once with respect to electric field.
                with respect to dipole field.
          Differentiating once with respect to nuclear coordinates.
 Keep R1 ints in memory in symmetry-blocked form, NReq=11497517.
          There are     1 degrees of freedom in the 1st order CPHF.  IDoFFX=0 NUNeed=     1.
 LinEq1:  Iter=  0 NonCon=     1 RMS=4.63D-03 Max=4.89D-02 NDo=     1
 AX will form     1 AO Fock derivatives at one time.
 LinEq1:  Iter=  1 NonCon=     1 RMS=6.25D-04 Max=4.77D-03 NDo=     1
 LinEq1:  Iter=  2 NonCon=     1 RMS=2.28D-04 Max=1.96D-03 NDo=     1
 LinEq1:  Iter=  3 NonCon=     1 RMS=6.12D-05 Max=4.59D-04 NDo=     1
 LinEq1:  Iter=  4 NonCon=     1 RMS=9.38D-06 Max=6.21D-05 NDo=     1
 LinEq1:  Iter=  5 NonCon=     1 RMS=1.61D-06 Max=1.10D-05 NDo=     1
 LinEq1:  Iter=  6 NonCon=     1 RMS=2.40D-07 Max=1.72D-06 NDo=     1
 LinEq1:  Iter=  7 NonCon=     1 RMS=2.73D-08 Max=2.34D-07 NDo=     1
 LinEq1:  Iter=  8 NonCon=     1 RMS=3.28D-09 Max=3.42D-08 NDo=     1
 LinEq1:  Iter=  9 NonCon=     1 RMS=3.20D-10 Max=2.11D-09 NDo=     1
 LinEq1:  Iter= 10 NonCon=     0 RMS=2.40D-11 Max=2.09D-10 NDo=     1
 Linear equations converged to 1.000D-10 1.000D-09 after    10 iterations.
 End of Minotr F.D. properties file   721 does not exist.
 End of Minotr F.D. properties file   722 does not exist.
 End of Minotr F.D. properties file   788 does not exist.
 Calling FoFJK, ICntrl=  10002127 FMM=F ISym2X=1 I1Cent= 0 IOpClX= 0 NMat=1 NMatS=1 NMatT=0.
 ***** Axes restored to original set *****
 -------------------------------------------------------------------
 Center     Atomic                   Forces (Hartrees/Bohr)
 Number     Number              X              Y              Z
 -------------------------------------------------------------------
      1        8          -0.002208781   -0.003125353    0.000000000
      2        1           0.002580620    0.000519381   -0.000000000
      3        1          -0.000371838    0.002605972   -0.000000000
 -------------------------------------------------------------------
 Cartesian Forces:  Max     0.003125353 RMS     0.001779677

 GradGradGradGradGradGradGradGradGradGradGradGradGradGradGradGradGradGrad
 Berny optimization.
 Using GEDIIS/GDIIS optimizer.
 FormGI is forming the generalized inverse of G from B-inverse, IUseBI=4.
 Internal  Forces:  Max     0.002600831 RMS     0.002165656
 Search for a local minimum.
 Step number   2 out of a maximum of   20
 All quantities printed in internal units (Hartrees-Bohrs-Radians)
 Mixed Optimization -- RFO/linear search
 Update second derivatives using D2CorX and points    1    2
 DE= -6.53D-04 DEPred=-6.23D-04 R= 1.05D+00
 TightC=F SS=  1.41D+00  RLast= 8.74D-02 DXNew= 5.0454D-01 2.6223D-01
 Trust test= 1.05D+00 RLast= 8.74D-02 DXMaxT set to 3.00D-01
 The second derivative matrix:
                          R1        R2        A1
           R1           0.56694
           R2           0.01220   0.56694
           A1           0.02908   0.02908   0.15105
 ITU=  1  0
 Use linear search instead of GDIIS.
     Eigenvalues ---    0.14714   0.55473   0.58306
 RFO step:  Lambda=-2.77735089D-05 EMin= 1.47135828D-01
 Quartic linear search produced a step of  0.04057.
 Iteration  1 RMS(Cart)=  0.00360489 RMS(Int)=  0.00001278
 Iteration  2 RMS(Cart)=  0.00001450 RMS(Int)=  0.00000000
 Iteration  3 RMS(Cart)=  0.00000000 RMS(Int)=  0.00000000
 ClnCor:  largest displacement from symmetrization is 1.57D-15 for atom     2.
 Variable       Old X    -DE/DX   Delta X   Delta X   Delta X     New X
                                 (Linear)    (Quad)   (Total)
    R1        1.81150   0.00260  -0.00011   0.00493   0.00482   1.81632
    R2        1.81150   0.00260  -0.00011   0.00493   0.00482   1.81632
    A1        1.82381  -0.00074  -0.00354  -0.00301  -0.00655   1.81726
         Item               Value     Threshold  Converged?
 Maximum Force            0.002601     0.000450     NO 
 RMS     Force            0.002166     0.000300     NO 
 Maximum Displacement     0.004163     0.001800     NO 
 RMS     Displacement     0.003607     0.001200     NO 
 Predicted change in Energy=-1.503324D-05
 GradGradGradGradGradGradGradGradGradGradGradGradGradGradGradGradGradGrad

                          Input orientation:                          
 ---------------------------------------------------------------------
 Center     Atomic      Atomic             Coordinates (Angstroms)
 Number     Number       Type             X           Y           Z
 ---------------------------------------------------------------------
      1          8           0       -1.910165    0.818774    0.010981
      2          1           0       -0.950070    0.863872    0.010981
      3          1           0       -2.188139    1.738853    0.010981
 ---------------------------------------------------------------------
                    Distance matrix (angstroms):
                    1          2          3
     1  O    0.000000
     2  H    0.961153   0.000000
     3  H    0.961153   1.516050   0.000000
 Stoichiometry    H2O
 Framework group  C2V[C2(O),SGV(H2)]
 Deg. of freedom     2
 Full point group                 C2V     NOp   4
 Largest Abelian subgroup         C2V     NOp   4
 Largest concise Abelian subgroup C2      NOp   2
                         Standard orientation:                         
 ---------------------------------------------------------------------
 Center     Atomic      Atomic             Coordinates (Angstroms)
 Number     Number       Type             X           Y           Z
 ---------------------------------------------------------------------
      1          8           0       -0.000000   -0.000000    0.118189
      2          1           0       -0.000000   -0.758025   -0.472754
      3          1           0        0.000000    0.758025   -0.472754
 ---------------------------------------------------------------------
 Rotational constants (GHZ):         808.4557731         436.3502150         283.3934394
 Standard basis: Aug-CC-pVTZ (5D, 7F)
 There are    42 symmetry adapted cartesian basis functions of A1  symmetry.
 There are    12 symmetry adapted cartesian basis functions of A2  symmetry.
 There are    20 symmetry adapted cartesian basis functions of B1  symmetry.
 There are    31 symmetry adapted cartesian basis functions of B2  symmetry.
 There are    35 symmetry adapted basis functions of A1  symmetry.
 There are    12 symmetry adapted basis functions of A2  symmetry.
 There are    18 symmetry adapted basis functions of B1  symmetry.
 There are    27 symmetry adapted basis functions of B2  symmetry.
    92 basis functions,   126 primitive gaussians,   105 cartesian basis functions
     5 alpha electrons        5 beta electrons
       nuclear repulsion energy         9.1580892683 Hartrees.
 NAtoms=    3 NActive=    3 NUniq=    2 SFac= 2.25D+00 NAtFMM=   60 NAOKFM=F Big=F
 Integral buffers will be    131072 words long.
 Raffenetti 1 integral format.
 Two-electron integral symmetry is turned on.
 One-electron integrals computed using PRISM.
 NBasis=    92 RedAO= T EigKep=  3.89D-04  NBF=    35    12    18    27
 NBsUse=    92 1.00D-06 EigRej= -1.00D+00 NBFU=    35    12    18    27
 Initial guess from the checkpoint file:  "water_optfreq.chk"
 B after Tr=     0.000000   -0.000000    0.000000
         Rot=    1.000000   -0.000000   -0.000000   -0.000000 Ang=   0.00 deg.
 Initial guess orbital symmetries:
       Occupied  (A1) (A1) (B2) (A1) (B1)
       Virtual   (A1) (B2) (A1) (B1) (A1) (B2) (B2) (A1) (A2) (B1)
                 (A1) (B2) (A1) (B2) (B2) (A1) (A1) (A2) (B1) (A1)
                 (B1) (A1) (B2) (B1) (A2) (B2) (A1) (A1) (B2) (B1)
                 (B2) (A2) (A1) (B2) (A2) (A1) (B1) (A1) (B2) (B2)
                 (A1) (B1) (A2) (A1) (A1) (B1) (B2) (A1) (B2) (B1)
                 (A1) (B2) (A2) (B2) (A1) (A2) (B1) (A1) (B2) (B1)
                 (A1) (A2) (B1) (B2) (A1) (B2) (B2) (A2) (B2) (A1)
                 (B1) (A1) (A1) (B2) (B1) (A1) (B1) (B1) (B2) (A2)
                 (A1) (A2) (A1) (A1) (B2) (B2) (A1)
 Keep R1 ints in memory in symmetry-blocked form, NReq=11496777.
 Requested convergence on RMS density matrix=1.00D-08 within 128 cycles.
 Requested convergence on MAX density matrix=1.00D-06.
 Requested convergence on             energy=1.00D-06.
 No special actions if energy rises.
 SCF Done:  E(RHF) =  -76.0603001744     A.U. after    8 cycles
            NFock=  8  Conv=0.23D-08     -V/T= 2.0015
 ExpMin= 2.53D-02 ExpMax= 1.53D+04 ExpMxC= 5.22D+02 IAcc=3 IRadAn=         5 AccDes= 0.00D+00
 HarFok:  IExCor=  205 AccDes= 0.00D+00 IRadAn=         5 IDoV=-2 UseB2=F ITyADJ=14
 ICtDFT= 12500011 ScaDFX=  1.000000  1.000000  1.000000  1.000000
 Range of M.O.s used for correlation:     2    92
 NBasis=    92 NAE=     5 NBE=     5 NFC=     1 NFV=     0
 NROrb=     91 NOA=     4 NOB=     4 NVA=    87 NVB=    87

 **** Warning!!: The largest alpha MO coefficient is  0.15882427D+02

 Fully direct method using O(ONN) memory.
 JobTyp=1 Pass  1:  I=   2 to   5 NPSUse=  1 ParTrn=F ParDer=F DoDerP=T.
 Spin components of T(2) and E(2):
     alpha-alpha T2 =       0.8156855526D-02 E2=     -0.3260799382D-01
     alpha-beta  T2 =       0.4737205522D-01 E2=     -0.2034760748D+00
     beta-beta   T2 =       0.8156855526D-02 E2=     -0.3260799382D-01
 ANorm=    0.1031351427D+01
 E2 =    -0.2686920624D+00 EUMP2 =    -0.76328992236863D+02
          IDoAtm=111
          Differentiating once with respect to electric field.
                with respect to dipole field.
          Differentiating once with respect to nuclear coordinates.
 Keep R1 ints in memory in symmetry-blocked form, NReq=11497517.
          There are     1 degrees of freedom in the 1st order CPHF.  IDoFFX=0 NUNeed=     1.
 LinEq1:  Iter=  0 NonCon=     1 RMS=4.65D-03 Max=4.92D-02 NDo=     1
 AX will form     1 AO Fock derivatives at one time.
 LinEq1:  Iter=  1 NonCon=     1 RMS=6.30D-04 Max=4.82D-03 NDo=     1
 LinEq1:  Iter=  2 NonCon=     1 RMS=2.30D-04 Max=1.98D-03 NDo=     1
 LinEq1:  Iter=  3 NonCon=     1 RMS=6.19D-05 Max=4.64D-04 NDo=     1
 LinEq1:  Iter=  4 NonCon=     1 RMS=9.49D-06 Max=6.35D-05 NDo=     1
 LinEq1:  Iter=  5 NonCon=     1 RMS=1.61D-06 Max=1.10D-05 NDo=     1
 LinEq1:  Iter=  6 NonCon=     1 RMS=2.42D-07 Max=1.75D-06 NDo=     1
 LinEq1:  Iter=  7 NonCon=     1 RMS=2.77D-08 Max=2.37D-07 NDo=     1
 LinEq1:  Iter=  8 NonCon=     1 RMS=3.31D-09 Max=3.46D-08 NDo=     1
 LinEq1:  Iter=  9 NonCon=     1 RMS=3.24D-10 Max=2.14D-09 NDo=     1
 LinEq1:  Iter= 10 NonCon=     0 RMS=2.44D-11 Max=2.14D-10 NDo=     1
 Linear equations converged to 1.000D-10 1.000D-09 after    10 iterations.
 End of Minotr F.D. properties file   721 does not exist.
 End of Minotr F.D. properties file   722 does not exist.
 End of Minotr F.D. properties file   788 does not exist.
 Calling FoFJK, ICntrl=  10002127 FMM=F ISym2X=1 I1Cent= 0 IOpClX= 0 NMat=1 NMatS=1 NMatT=0.
 ***** Axes restored to original set *****
 -------------------------------------------------------------------
 Center     Atomic                   Forces (Hartrees/Bohr)
 Number     Number              X              Y              Z
 -------------------------------------------------------------------
      1        8          -0.000154499   -0.000218611    0.000000000
      2        1           0.000211905    0.000014141   -0.000000000
      3        1          -0.000057406    0.000204471   -0.000000000
 -------------------------------------------------------------------
 Cartesian Forces:  Max     0.000218611 RMS     0.000134110

 GradGradGradGradGradGradGradGradGradGradGradGradGradGradGradGradGradGrad
 Berny optimization.
 Using GEDIIS/GDIIS optimizer.
 FormGI is forming the generalized inverse of G from B-inverse, IUseBI=4.
 Internal  Forces:  Max     0.000212335 RMS     0.000173426
 Search for a local minimum.
 Step number   3 out of a maximum of   20
 All quantities printed in internal units (Hartrees-Bohrs-Radians)
 Mixed Optimization -- En-DIIS/RFO-DIIS
 Update second derivatives using D2CorX and points    1    2    3
 DE= -1.60D-05 DEPred=-1.50D-05 R= 1.06D+00
 TightC=F SS=  1.41D+00  RLast= 9.45D-03 DXNew= 5.0454D-01 2.8358D-02
 Trust test= 1.06D+00 RLast= 9.45D-03 DXMaxT set to 3.00D-01
 The second derivative matrix:
                          R1        R2        A1
           R1           0.54499
           R2          -0.00974   0.54499
           A1           0.02930   0.02930   0.15437
 ITU=  1  1  0
 Use linear search instead of GDIIS.
     Eigenvalues ---    0.14991   0.53971   0.55473
 RFO step:  Lambda=-1.60004099D-08 EMin= 1.49914901D-01
 Quartic linear search produced a step of  0.07606.
 Iteration  1 RMS(Cart)=  0.00025353 RMS(Int)=  0.00000003
 Iteration  2 RMS(Cart)=  0.00000003 RMS(Int)=  0.00000000
 ClnCor:  largest displacement from symmetrization is 8.01D-15 for atom     3.
 Variable       Old X    -DE/DX   Delta X   Delta X   Delta X     New X
                                 (Linear)    (Quad)   (Total)
    R1        1.81632   0.00021   0.00037   0.00004   0.00041   1.81673
    R2        1.81632   0.00021   0.00037   0.00004   0.00041   1.81673
    A1        1.81726  -0.00001  -0.00050   0.00028  -0.00021   1.81705
         Item               Value     Threshold  Converged?
 Maximum Force            0.000212     0.000450     YES
 RMS     Force            0.000173     0.000300     YES
 Maximum Displacement     0.000245     0.001800     YES
 RMS     Displacement     0.000254     0.001200     YES
 Predicted change in Energy=-8.737211D-08
 Optimization completed.
    -- Stationary point found.
                           ----------------------------
                           !   Optimized Parameters   !
                           ! (Angstroms and Degrees)  !
 --------------------------                            --------------------------
 ! Name  Definition              Value          Derivative Info.                !
 --------------------------------------------------------------------------------
 ! R1    R(1,2)                  0.9612         -DE/DX =    0.0002              !
 ! R2    R(1,3)                  0.9612         -DE/DX =    0.0002              !
 ! A1    A(2,1,3)              104.1213         -DE/DX =    0.0                 !
 --------------------------------------------------------------------------------
 GradGradGradGradGradGradGradGradGradGradGradGradGradGradGradGradGradGrad

                          Input orientation:                          
 ---------------------------------------------------------------------
 Center     Atomic      Atomic             Coordinates (Angstroms)
 Number     Number       Type             X           Y           Z
 ---------------------------------------------------------------------
      1          8           0       -1.910165    0.818774    0.010981
      2          1           0       -0.950070    0.863872    0.010981
      3          1           0       -2.188139    1.738853    0.010981
 ---------------------------------------------------------------------
                    Distance matrix (angstroms):
                    1          2          3
     1  O    0.000000
     2  H    0.961153   0.000000
     3  H    0.961153   1.516050   0.000000
 Stoichiometry    H2O
 Framework group  C2V[C2(O),SGV(H2)]
 Deg. of freedom     2
 Full point group                 C2V     NOp   4
 Largest Abelian subgroup         C2V     NOp   4
 Largest concise Abelian subgroup C2      NOp   2
                         Standard orientation:                         
 ---------------------------------------------------------------------
 Center     Atomic      Atomic             Coordinates (Angstroms)
 Number     Number       Type             X           Y           Z
 ---------------------------------------------------------------------
      1          8           0       -0.000000   -0.000000    0.118189
      2          1           0       -0.000000   -0.758025   -0.472754
      3          1           0        0.000000    0.758025   -0.472754
 ---------------------------------------------------------------------
 Rotational constants (GHZ):         808.4557731         436.3502150         283.3934394

 **********************************************************************

            Population analysis using the SCF Density.

 **********************************************************************

 Orbital symmetries:
       Occupied  (A1) (A1) (B2) (A1) (B1)
       Virtual   (A1) (B2) (A1) (B1) (A1) (B2) (B2) (A1) (A2) (B1)
                 (A1) (B2) (A1) (B2) (B2) (A1) (A1) (A2) (B1) (A1)
                 (B1) (A1) (B2) (B1) (A2) (B2) (A1) (A1) (B2) (B1)
                 (B2) (A2) (A1) (B2) (A2) (A1) (B1) (A1) (B2) (B2)
                 (A1) (B1) (A2) (A1) (A1) (B1) (B2) (A1) (B2) (B1)
                 (A1) (B2) (A2) (B2) (A1) (A2) (B1) (A1) (B2) (B1)
                 (A1) (A2) (B1) (B2) (A1) (B2) (A2) (B2) (B2) (A1)
                 (B1) (A1) (A1) (B2) (B1) (A1) (B1) (B1) (B2) (A2)
                 (A1) (A2) (A1) (A1) (B2) (B2) (A1)
 The electronic state is 1-A1.
 Alpha  occ. eigenvalues --  -20.56806  -1.35187  -0.71494  -0.58497  -0.51015
 Alpha virt. eigenvalues --    0.02937   0.04769   0.13589   0.15877   0.17517
 Alpha virt. eigenvalues --    0.18308   0.22714   0.24493   0.26539   0.30003
 Alpha virt. eigenvalues --    0.31014   0.36579   0.43737   0.46607   0.59920
 Alpha virt. eigenvalues --    0.65847   0.70797   0.72263   0.73165   0.83056
 Alpha virt. eigenvalues --    0.84634   0.89215   0.91251   0.91825   0.92238
 Alpha virt. eigenvalues --    0.93079   0.96141   1.02091   1.04314   1.08252
 Alpha virt. eigenvalues --    1.10845   1.17618   1.18184   1.26094   1.51011
 Alpha virt. eigenvalues --    1.53509   1.58269   1.80518   1.82032   1.98409
 Alpha virt. eigenvalues --    2.11733   2.26261   2.31567   2.32668   2.41822
 Alpha virt. eigenvalues --    2.42051   2.44301   2.47950   2.67717   2.69798
 Alpha virt. eigenvalues --    2.77081   2.81547   2.88390   3.65231   3.74109
 Alpha virt. eigenvalues --    4.01755   4.08269   4.16360   4.24699   4.28707
 Alpha virt. eigenvalues --    4.37416   4.37709   4.40460   4.51707   4.72442
 Alpha virt. eigenvalues --    4.84247   5.14780   5.14781   5.24949   5.32253
 Alpha virt. eigenvalues --    5.52074   5.66187   6.17693   6.51307   6.70887
 Alpha virt. eigenvalues --    6.89727   7.13128   7.25105   7.29896   7.31153
 Alpha virt. eigenvalues --    7.32815   7.35428   7.53057   7.89620   7.92172
 Alpha virt. eigenvalues --    8.79943  15.71053
          Condensed to atoms (all electrons):
               1          2          3
     1  O    7.903767   0.270358   0.270358
     2  H    0.270358   0.487851   0.019550
     3  H    0.270358   0.019550   0.487851
 Mulliken charges:
               1
     1  O   -0.444482
     2  H    0.222241
     3  H    0.222241
 Sum of Mulliken charges =  -0.00000
 Mulliken charges with hydrogens summed into heavy atoms:
               1
     1  O   -0.000000
 Electronic spatial extent (au):  <R**2>=             19.5224
 Charge=             -0.0000 electrons
 Dipole moment (field-independent basis, Debye):
    X=              0.0000    Y=             -0.0000    Z=             -1.9922  Tot=              1.9922
 Quadrupole moment (field-independent basis, Debye-Ang):
   XX=             -7.5664   YY=             -4.2536   ZZ=             -6.2347
   XY=              0.0000   XZ=             -0.0000   YZ=              0.0000
 Traceless Quadrupole moment (field-independent basis, Debye-Ang):
   XX=             -1.5482   YY=              1.7646   ZZ=             -0.2165
   XY=              0.0000   XZ=             -0.0000   YZ=              0.0000
 Octapole moment (field-independent basis, Debye-Ang**2):
  XXX=             -0.0000  YYY=             -0.0000  ZZZ=             -1.1473  XYY=              0.0000
  XXY=              0.0000  XXZ=             -0.2526  XZZ=             -0.0000  YZZ=              0.0000
  YYZ=             -1.4150  XYZ=             -0.0000
 Hexadecapole moment (field-independent basis, Debye-Ang**3):
 XXXX=             -6.7384 YYYY=             -5.9937 ZZZZ=             -7.2667 XXXY=             -0.0000
 XXXZ=              0.0000 YYYX=             -0.0000 YYYZ=              0.0000 ZZZX=              0.0000
 ZZZY=              0.0000 XXYY=             -2.4514 XXZZ=             -2.3855 YYZZ=             -1.8526
 XXYZ=             -0.0000 YYXZ=             -0.0000 ZZXY=              0.0000
 N-N= 9.158089268349D+00 E-N=-1.989207465877D+02  KE= 7.594393680450D+01
 Symmetry A1   KE= 6.790381433909D+01
 Symmetry A2   KE=-1.134888000844D-20
 Symmetry B1   KE= 4.467168085057D+00
 Symmetry B2   KE= 3.572954380359D+00
 Unable to Open any file for archive entry.
 1\1\GINC-NODE01\FOpt\RMP2-FC\Aug-CC-pVTZ\H2O1\KAESER\21-Sep-2023\0\\# 
 opt freq mp2/aug-cc-pvtz geom=connectivity\\Title Card Required\\0,1\O
 ,-1.9101645995,0.8187738678,0.0109812\H,-0.9500701058,0.8638720885,0.0
 109812\H,-2.1881392528,1.7388528744,0.0109812\\Version=ES64L-G16RevC.0
 1\State=1-A1\HF=-76.0603002\MP2=-76.3289922\RMSD=2.292e-09\RMSF=1.341e
 -04\Dipole=0.4221482,0.5973258,0.\PG=C02V [C2(O1),SGV(H2)]\\@
 The archive entry for this job was punched.


 I WANT TO KNOW HOW GOD CREATED THE WORLD.  I AM NOT INTERESTED IN
 THIS OR THAT PHENOMENON, IN THE SPECTRUM OF THIS OR THAT ELEMENT.
 I WANT TO KNOW HIS THOUGHTS, THE REST ARE DETAILS.
     -- ALBERT EINSTEIN
 Job cpu time:       0 days  0 hours  0 minutes 22.8 seconds.
 Elapsed time:       0 days  0 hours  0 minutes 22.5 seconds.
 File lengths (MBytes):  RWF=     10 Int=      0 D2E=      0 Chk=      3 Scr=      1
 Normal termination of Gaussian 16 at Thu Sep 21 10:37:23 2023.
 Link1:  Proceeding to internal job step number  2.
 ----------------------------------------------------------------------
 #N Geom=AllCheck Guess=TCheck SCRF=Check GenChk RMP2(FC)/Aug-CC-pVTZ F
 req
 ----------------------------------------------------------------------
 1/10=4,29=7,30=1,38=1,40=1/1,3;
 2/12=2,40=1/2;
 3/5=16,6=1,7=10,11=1,14=-4,25=1,30=1,70=2,71=2,116=1,140=1/1,2,3;
 4/5=101/1;
 5/5=2,38=6,98=1/2;
 8/6=3,8=1,10=1,19=11,30=-1/1;
 9/15=3,16=-3/6;
 11/6=1,8=1,15=11,17=12,24=-1,27=1,28=-2,29=300,32=6,42=3/1,2,10;
 10/6=2,21=1/2;
 8/6=4,8=1,10=1,19=11,30=-1/11,4;
 10/5=1,20=4/2;
 11/12=2,14=11,16=1,17=2,28=-2,42=3,76=2/2,10,12;
 6/7=2,8=2,9=2,10=2/1;
 7/8=1,10=1,12=2,25=1,44=2/1,2,3,16;
 1/10=4,30=1/3;
 99//99;
 Structure from the checkpoint file:  "water_optfreq.chk"
 -------------------
 Title Card Required
 -------------------
 Charge =  0 Multiplicity = 1
 Redundant internal coordinates found in file.  (old form).
 O,0,-1.9101645995,0.8187738678,0.0109812
 H,0,-0.9500701058,0.8638720885,0.0109812
 H,0,-2.1881392528,1.7388528744,0.0109812
 Recover connectivity data from disk.

 GradGradGradGradGradGradGradGradGradGradGradGradGradGradGradGradGradGrad
 Berny optimization.
 Initialization pass.
                           ----------------------------
                           !    Initial Parameters    !
                           ! (Angstroms and Degrees)  !
 --------------------------                            --------------------------
 ! Name  Definition              Value          Derivative Info.                !
 --------------------------------------------------------------------------------
 ! R1    R(1,2)                  0.9612         calculate D2E/DX2 analytically  !
 ! R2    R(1,3)                  0.9612         calculate D2E/DX2 analytically  !
 ! A1    A(2,1,3)              104.1213         calculate D2E/DX2 analytically  !
 --------------------------------------------------------------------------------
 Trust Radius=3.00D-01 FncErr=1.00D-07 GrdErr=1.00D-07 EigMax=2.50D+02 EigMin=1.00D-04
 Number of steps in this run=      2 maximum allowed number of steps=      2.
 GradGradGradGradGradGradGradGradGradGradGradGradGradGradGradGradGradGrad

                          Input orientation:                          
 ---------------------------------------------------------------------
 Center     Atomic      Atomic             Coordinates (Angstroms)
 Number     Number       Type             X           Y           Z
 ---------------------------------------------------------------------
      1          8           0       -1.910165    0.818774    0.010981
      2          1           0       -0.950070    0.863872    0.010981
      3          1           0       -2.188139    1.738853    0.010981
 ---------------------------------------------------------------------
                    Distance matrix (angstroms):
                    1          2          3
     1  O    0.000000
     2  H    0.961153   0.000000
     3  H    0.961153   1.516050   0.000000
 Stoichiometry    H2O
 Framework group  C2V[C2(O),SGV(H2)]
 Deg. of freedom     2
 Full point group                 C2V     NOp   4
 Largest Abelian subgroup         C2V     NOp   4
 Largest concise Abelian subgroup C2      NOp   2
                         Standard orientation:                         
 ---------------------------------------------------------------------
 Center     Atomic      Atomic             Coordinates (Angstroms)
 Number     Number       Type             X           Y           Z
 ---------------------------------------------------------------------
      1          8           0       -0.000000   -0.000000    0.118189
      2          1           0       -0.000000   -0.758025   -0.472754
      3          1           0        0.000000    0.758025   -0.472754
 ---------------------------------------------------------------------
 Rotational constants (GHZ):         808.4557731         436.3502150         283.3934394
 Standard basis: Aug-CC-pVTZ (5D, 7F)
 There are    42 symmetry adapted cartesian basis functions of A1  symmetry.
 There are    12 symmetry adapted cartesian basis functions of A2  symmetry.
 There are    20 symmetry adapted cartesian basis functions of B1  symmetry.
 There are    31 symmetry adapted cartesian basis functions of B2  symmetry.
 There are    35 symmetry adapted basis functions of A1  symmetry.
 There are    12 symmetry adapted basis functions of A2  symmetry.
 There are    18 symmetry adapted basis functions of B1  symmetry.
 There are    27 symmetry adapted basis functions of B2  symmetry.
    92 basis functions,   126 primitive gaussians,   105 cartesian basis functions
     5 alpha electrons        5 beta electrons
       nuclear repulsion energy         9.1580892683 Hartrees.
 NAtoms=    3 NActive=    3 NUniq=    2 SFac= 2.25D+00 NAtFMM=   60 NAOKFM=F Big=F
 Integral buffers will be    131072 words long.
 Raffenetti 1 integral format.
 Two-electron integral symmetry is turned on.
 One-electron integrals computed using PRISM.
 NBasis=    92 RedAO= T EigKep=  3.89D-04  NBF=    35    12    18    27
 NBsUse=    92 1.00D-06 EigRej= -1.00D+00 NBFU=    35    12    18    27
 Initial guess from the checkpoint file:  "water_optfreq.chk"
 B after Tr=    -0.000000   -0.000000    0.000000
         Rot=    1.000000    0.000000   -0.000000    0.000000 Ang=   0.00 deg.
 Initial guess orbital symmetries:
       Occupied  (A1) (A1) (B2) (A1) (B1)
       Virtual   (A1) (B2) (A1) (B1) (A1) (B2) (B2) (A1) (A2) (B1)
                 (A1) (B2) (A1) (B2) (B2) (A1) (A1) (A2) (B1) (A1)
                 (B1) (A1) (B2) (B1) (A2) (B2) (A1) (A1) (B2) (B1)
                 (B2) (A2) (A1) (B2) (A2) (A1) (B1) (A1) (B2) (B2)
                 (A1) (B1) (A2) (A1) (A1) (B1) (B2) (A1) (B2) (B1)
                 (A1) (B2) (A2) (B2) (A1) (A2) (B1) (A1) (B2) (B1)
                 (A1) (A2) (B1) (B2) (A1) (B2) (A2) (B2) (B2) (A1)
                 (B1) (A1) (A1) (B2) (B1) (A1) (B1) (B1) (B2) (A2)
                 (A1) (A2) (A1) (A1) (B2) (B2) (A1)
 Keep R1 ints in memory in symmetry-blocked form, NReq=11496777.
 Requested convergence on RMS density matrix=1.00D-08 within 128 cycles.
 Requested convergence on MAX density matrix=1.00D-06.
 Requested convergence on             energy=1.00D-06.
 No special actions if energy rises.
 SCF Done:  E(RHF) =  -76.0603001744     A.U. after    1 cycles
            NFock=  1  Conv=0.21D-09     -V/T= 2.0015
 ExpMin= 2.53D-02 ExpMax= 1.53D+04 ExpMxC= 5.22D+02 IAcc=3 IRadAn=         5 AccDes= 0.00D+00
 HarFok:  IExCor=  205 AccDes= 0.00D+00 IRadAn=         5 IDoV=-2 UseB2=F ITyADJ=14
 ICtDFT= 12500011 ScaDFX=  1.000000  1.000000  1.000000  1.000000
 Range of M.O.s used for correlation:     2    92
 NBasis=    92 NAE=     5 NBE=     5 NFC=     1 NFV=     0
 NROrb=     91 NOA=     4 NOB=     4 NVA=    87 NVB=    87

 **** Warning!!: The largest alpha MO coefficient is  0.15882427D+02

 Disk-based method using ON**2 memory for  4 occupieds at a time.
 Permanent disk used for amplitudes=      226635 words.
 Estimated scratch disk usage=     5978600 words.
 Actual    scratch disk usage=     5978600 words.
 JobTyp=1 Pass  1:  I=   2 to   5 NPSUse=  1 ParTrn=F ParDer=F DoDerP=T.
 (rs|ai) integrals will be sorted in core.
 Spin components of T(2) and E(2):
     alpha-alpha T2 =       0.8156855541D-02 E2=     -0.3260799389D-01
     alpha-beta  T2 =       0.4737205522D-01 E2=     -0.2034760749D+00
     beta-beta   T2 =       0.8156855541D-02 E2=     -0.3260799389D-01
 ANorm=    0.1031351427D+01
 E2 =    -0.2686920626D+00 EUMP2 =    -0.76328992237091D+02
 G2DrvN: will do     4 centers at a time, making    1 passes.
 Calling FoFCou, ICntrl=  3107 FMM=F I1Cent=   0 AccDes= 0.00D+00.
 End of G2Drv F.D. properties file   721 does not exist.
 End of G2Drv F.D. properties file   722 does not exist.
 End of G2Drv F.D. properties file   788 does not exist.
          IDoAtm=111
          Differentiating once with respect to electric field.
                with respect to dipole field.
          Differentiating once with respect to nuclear coordinates.
 Keep R1 ints in memory in symmetry-blocked form, NReq=11497517.
          There are    12 degrees of freedom in the 1st order CPHF.  IDoFFX=6 NUNeed=    12.
      9 vectors produced by pass  0 Test12= 3.62D-15 8.33D-09 XBig12= 1.91D+00 5.63D-01.
 AX will form     9 AO Fock derivatives at one time.
      9 vectors produced by pass  1 Test12= 3.62D-15 8.33D-09 XBig12= 1.13D-01 1.08D-01.
      9 vectors produced by pass  2 Test12= 3.62D-15 8.33D-09 XBig12= 3.23D-03 2.03D-02.
      9 vectors produced by pass  3 Test12= 3.62D-15 8.33D-09 XBig12= 4.45D-05 1.88D-03.
      9 vectors produced by pass  4 Test12= 3.62D-15 8.33D-09 XBig12= 7.30D-07 4.12D-04.
      9 vectors produced by pass  5 Test12= 3.62D-15 8.33D-09 XBig12= 3.54D-09 1.78D-05.
      7 vectors produced by pass  6 Test12= 3.62D-15 8.33D-09 XBig12= 1.05D-11 1.22D-06.
      3 vectors produced by pass  7 Test12= 3.62D-15 8.33D-09 XBig12= 7.03D-14 8.00D-08.
 InvSVY:  IOpt=1 It=  1 EMax= 5.55D-16
 Solved reduced A of dimension    64 with     9 vectors.
 End of Minotr F.D. properties file   721 does not exist.
 End of Minotr F.D. properties file   722 does not exist.
 End of Minotr F.D. properties file   788 does not exist.
 MDV=   104857600.
 Form MO integral derivatives with frozen-active canonical formalism.
 Discarding MO integrals.
 Reordered first order wavefunction length =       378450
 In DefCFB: NBatch=  1 ICI=  5 ICA= 87 LFMax= 29
            Large arrays: LIAPS=    16808400 LIARS=    17584875 words.
 Semi-Direct transformation.
 ModeAB=           4 MOrb=             5 LenV=     104469250
 LASXX=      1858375 LTotXX=     1858375 LenRXX=     3776950
 LTotAB=     1918575 MaxLAS=     1743400 LenRXY=           0
 NonZer=     5635325 LenScr=     9216000 LnRSAI=     1743400
 LnScr1=     3266560 LExtra=           0 Total=     18002910
 MaxDsk=          -1 SrtSym=           T ITran=            4
 JobTyp=0 Pass  1:  I=   1 to   5.
 (rs|ai) integrals will be sorted in core.
 Spin components of T(2) and E(2):
     alpha-alpha T2 =       0.8156855541D-02 E2=     -0.3260799389D-01
     alpha-beta  T2 =       0.4737205522D-01 E2=     -0.2034760749D+00
     beta-beta   T2 =       0.8156855541D-02 E2=     -0.3260799389D-01
 ANorm=    0.1458551176D+01
 E2 =    -0.2686920626D+00 EUMP2 =    -0.76328992237091D+02
          IDoAtm=111
          Differentiating once with respect to electric field.
                with respect to dipole field.
          Differentiating once with respect to nuclear coordinates.
          There are     1 degrees of freedom in the 1st order CPHF.  IDoFFX=0 NUNeed=     1.
 LinEq1:  Iter=  0 NonCon=     1 RMS=4.65D-03 Max=4.92D-02 NDo=     1
 LinEq1:  Iter=  1 NonCon=     1 RMS=6.30D-04 Max=4.82D-03 NDo=     1
 LinEq1:  Iter=  2 NonCon=     1 RMS=2.30D-04 Max=1.98D-03 NDo=     1
 LinEq1:  Iter=  3 NonCon=     1 RMS=6.19D-05 Max=4.64D-04 NDo=     1
 LinEq1:  Iter=  4 NonCon=     1 RMS=9.49D-06 Max=6.35D-05 NDo=     1
 LinEq1:  Iter=  5 NonCon=     1 RMS=1.61D-06 Max=1.10D-05 NDo=     1
 LinEq1:  Iter=  6 NonCon=     1 RMS=2.42D-07 Max=1.75D-06 NDo=     1
 LinEq1:  Iter=  7 NonCon=     1 RMS=2.77D-08 Max=2.37D-07 NDo=     1
 LinEq1:  Iter=  8 NonCon=     1 RMS=3.31D-09 Max=3.46D-08 NDo=     1
 LinEq1:  Iter=  9 NonCon=     1 RMS=3.24D-10 Max=2.14D-09 NDo=     1
 LinEq1:  Iter= 10 NonCon=     0 RMS=2.44D-11 Max=2.14D-10 NDo=     1
 Linear equations converged to 1.000D-10 1.000D-09 after    10 iterations.
 End of Minotr F.D. properties file   721 does not exist.
 End of Minotr F.D. properties file   722 does not exist.
 End of Minotr F.D. properties file   788 does not exist.
 Symmetrizing basis deriv contribution to polar:
 IMax=3 JMax=2 DiffMx= 0.00D+00
 G2DrvN: will do     4 centers at a time, making    1 passes.
 Calling FoFCou, ICntrl=  3107 FMM=F I1Cent=   0 AccDes= 0.00D+00.
 End of G2Drv F.D. properties file   721 does not exist.
 End of G2Drv F.D. properties file   722 does not exist.
 End of G2Drv F.D. properties file   788 does not exist.
 R2 and R3 integrals will be kept in memory, NReq=    32914790.
 DD1Dir will call FoFMem   1 times, MxPair=        30
 NAB=    15 NAA=     0 NBB=     0.
 Discarding MO integrals.

 **********************************************************************

            Population analysis using the SCF Density.

 **********************************************************************

 Orbital symmetries:
       Occupied  (A1) (A1) (B2) (A1) (B1)
       Virtual   (A1) (B2) (A1) (B1) (A1) (B2) (B2) (A1) (A2) (B1)
                 (A1) (B2) (A1) (B2) (B2) (A1) (A1) (A2) (B1) (A1)
                 (B1) (A1) (B2) (B1) (A2) (B2) (A1) (A1) (B2) (B1)
                 (B2) (A2) (A1) (B2) (A2) (A1) (B1) (A1) (B2) (B2)
                 (A1) (B1) (A2) (A1) (A1) (B1) (B2) (A1) (B2) (B1)
                 (A1) (B2) (A2) (B2) (A1) (A2) (B1) (A1) (B2) (B1)
                 (A1) (A2) (B1) (B2) (A1) (B2) (A2) (B2) (B2) (A1)
                 (B1) (A1) (A1) (B2) (B1) (A1) (B1) (B1) (B2) (A2)
                 (A1) (A2) (A1) (A1) (B2) (B2) (A1)
 The electronic state is 1-A1.
 Alpha  occ. eigenvalues --  -20.56806  -1.35187  -0.71494  -0.58497  -0.51015
 Alpha virt. eigenvalues --    0.02937   0.04769   0.13589   0.15877   0.17517
 Alpha virt. eigenvalues --    0.18308   0.22714   0.24493   0.26539   0.30003
 Alpha virt. eigenvalues --    0.31014   0.36579   0.43737   0.46607   0.59920
 Alpha virt. eigenvalues --    0.65847   0.70797   0.72263   0.73165   0.83056
 Alpha virt. eigenvalues --    0.84634   0.89215   0.91251   0.91825   0.92238
 Alpha virt. eigenvalues --    0.93079   0.96141   1.02091   1.04314   1.08252
 Alpha virt. eigenvalues --    1.10845   1.17618   1.18184   1.26094   1.51011
 Alpha virt. eigenvalues --    1.53509   1.58269   1.80518   1.82032   1.98409
 Alpha virt. eigenvalues --    2.11733   2.26261   2.31567   2.32668   2.41822
 Alpha virt. eigenvalues --    2.42051   2.44301   2.47950   2.67717   2.69798
 Alpha virt. eigenvalues --    2.77081   2.81547   2.88390   3.65231   3.74109
 Alpha virt. eigenvalues --    4.01755   4.08269   4.16360   4.24699   4.28707
 Alpha virt. eigenvalues --    4.37416   4.37709   4.40460   4.51707   4.72442
 Alpha virt. eigenvalues --    4.84247   5.14780   5.14781   5.24949   5.32253
 Alpha virt. eigenvalues --    5.52074   5.66187   6.17693   6.51307   6.70887
 Alpha virt. eigenvalues --    6.89727   7.13128   7.25105   7.29896   7.31153
 Alpha virt. eigenvalues --    7.32815   7.35428   7.53057   7.89620   7.92172
 Alpha virt. eigenvalues --    8.79943  15.71053
          Condensed to atoms (all electrons):
               1          2          3
     1  O    7.903767   0.270358   0.270358
     2  H    0.270358   0.487851   0.019550
     3  H    0.270358   0.019550   0.487851
 Mulliken charges:
               1
     1  O   -0.444482
     2  H    0.222241
     3  H    0.222241
 Sum of Mulliken charges =   0.00000
 Mulliken charges with hydrogens summed into heavy atoms:
               1
     1  O    0.000000
 APT charges:
               1
     1  O   -0.512840
     2  H    0.256420
     3  H    0.256420
 Sum of APT charges =  -0.00000
 APT charges with hydrogens summed into heavy atoms:
               1
     1  O   -0.000000
 Electronic spatial extent (au):  <R**2>=             19.5224
 Charge=              0.0000 electrons
 Dipole moment (field-independent basis, Debye):
    X=              0.0000    Y=             -0.0000    Z=             -1.9922  Tot=              1.9922
 Quadrupole moment (field-independent basis, Debye-Ang):
   XX=             -7.5664   YY=             -4.2536   ZZ=             -6.2347
   XY=              0.0000   XZ=             -0.0000   YZ=              0.0000
 Traceless Quadrupole moment (field-independent basis, Debye-Ang):
   XX=             -1.5482   YY=              1.7646   ZZ=             -0.2165
   XY=              0.0000   XZ=             -0.0000   YZ=              0.0000
 Octapole moment (field-independent basis, Debye-Ang**2):
  XXX=             -0.0000  YYY=              0.0000  ZZZ=             -1.1473  XYY=              0.0000
  XXY=              0.0000  XXZ=             -0.2526  XZZ=             -0.0000  YZZ=              0.0000
  YYZ=             -1.4150  XYZ=             -0.0000
 Hexadecapole moment (field-independent basis, Debye-Ang**3):
 XXXX=             -6.7384 YYYY=             -5.9937 ZZZZ=             -7.2667 XXXY=             -0.0000
 XXXZ=              0.0000 YYYX=             -0.0000 YYYZ=              0.0000 ZZZX=              0.0000
 ZZZY=             -0.0000 XXYY=             -2.4514 XXZZ=             -2.3855 YYZZ=             -1.8526
 XXYZ=             -0.0000 YYXZ=             -0.0000 ZZXY=              0.0000
 N-N= 9.158089268349D+00 E-N=-1.989207466385D+02  KE= 7.594393683029D+01
 Symmetry A1   KE= 6.790381433827D+01
 Symmetry A2   KE=-1.069012129886D-19
 Symmetry B1   KE= 4.467168092379D+00
 Symmetry B2   KE= 3.572954399638D+00
  Exact polarizability:       9.247       0.000      10.014      -0.000      -0.000       9.550
 Approx polarizability:       6.198       0.000       7.860      -0.000      -0.000       7.269
 Calling FoFJK, ICntrl=  10100127 FMM=F ISym2X=1 I1Cent= 0 IOpClX= 0 NMat=1 NMatS=1 NMatT=0.
 Full mass-weighted force constant matrix:
 Low frequencies ---  -59.4860  -56.5711  -54.9377   -0.0020    0.0008    0.0019
 Low frequencies --- 1627.7612 3824.7050 3950.6090
 Diagonal vibrational polarizability:
        0.0000000       0.1302193       0.7386222
 Harmonic frequencies (cm**-1), IR intensities (KM/Mole), Raman scattering
 activities (A**4/AMU), depolarization ratios for plane and unpolarized
 incident light, reduced masses (AMU), force constants (mDyne/A),
 and normal coordinates:
                      1                      2                      3
                     A1                     A1                     B2
 Frequencies --   1627.7612              3824.7050              3950.6090
 Red. masses --      1.0828                 1.0450                 1.0815
 Frc consts  --      1.6904                 9.0069                 9.9448
 IR Inten    --     71.7141                 5.5691                75.5214
  Atom  AN      X      Y      Z        X      Y      Z        X      Y      Z
     1   8     0.00  -0.00  -0.07     0.00  -0.00  -0.05    -0.00  -0.07   0.00
     2   1    -0.00  -0.43   0.56     0.00   0.59   0.40     0.00   0.56   0.43
     3   1    -0.00   0.43   0.56    -0.00  -0.59   0.40     0.00   0.56  -0.43

 -------------------
 - Thermochemistry -
 -------------------
 Temperature   298.150 Kelvin.  Pressure   1.00000 Atm.
 Atom     1 has atomic number  8 and mass  15.99491
 Atom     2 has atomic number  1 and mass   1.00783
 Atom     3 has atomic number  1 and mass   1.00783
 Molecular mass:    18.01056 amu.
 Principal axes and moments of inertia in atomic units:
                           1         2         3
     Eigenvalues --     2.23233   4.13599   6.36832
           X            0.00000   0.00000   1.00000
           Y            1.00000   0.00000  -0.00000
           Z            0.00000   1.00000   0.00000
 This molecule is an asymmetric top.
 Rotational symmetry number  2.
 Rotational temperatures (Kelvin)     38.79976    20.94151    13.60074
 Rotational constants (GHZ):         808.45577   436.35021   283.39344
 Zero-point vibrational energy      56242.9 (Joules/Mol)
                                   13.44237 (Kcal/Mol)
 Vibrational temperatures:   2341.99  5502.90  5684.05
          (Kelvin)
 
 Zero-point correction=                           0.021422 (Hartree/Particle)
 Thermal correction to Energy=                    0.024257
 Thermal correction to Enthalpy=                  0.025201
 Thermal correction to Gibbs Free Energy=         0.003778
 Sum of electronic and zero-point Energies=            -76.307570
 Sum of electronic and thermal Energies=               -76.304735
 Sum of electronic and thermal Enthalpies=             -76.303791
 Sum of electronic and thermal Free Energies=          -76.325214
 
                     E (Thermal)             CV                S
                      KCal/Mol        Cal/Mol-Kelvin    Cal/Mol-Kelvin
 Total                   15.222              6.009             45.089
 Electronic               0.000              0.000              0.000
 Translational            0.889              2.981             34.608
 Rotational               0.889              2.981             10.474
 Vibrational             13.444              0.048              0.007
                       Q            Log10(Q)             Ln(Q)
 Total Bot       0.182845D-01         -1.737916         -4.001699
 Total V=0       0.130440D+09          8.115411         18.686424
 Vib (Bot)       0.140230D-09         -9.853158        -22.687735
 Vib (V=0)       0.100039D+01          0.000168          0.000388
 Electronic      0.100000D+01          0.000000          0.000000
 Translational   0.300431D+07          6.477745         14.915559
 Rotational      0.434008D+02          1.637497          3.770477
 ***** Axes restored to original set *****
 -------------------------------------------------------------------
 Center     Atomic                   Forces (Hartrees/Bohr)
 Number     Number              X              Y              Z
 -------------------------------------------------------------------
      1        8          -0.000154499   -0.000218612    0.000000000
      2        1           0.000211905    0.000014141    0.000000000
      3        1          -0.000057406    0.000204471   -0.000000000
 -------------------------------------------------------------------
 Cartesian Forces:  Max     0.000218612 RMS     0.000134110
 FormGI is forming the generalized inverse of G from B-inverse, IUseBI=4.

 GradGradGradGradGradGradGradGradGradGradGradGradGradGradGradGradGradGrad
 Berny optimization.
 Internal  Forces:  Max     0.000212335 RMS     0.000173426
 Search for a local minimum.
 Step number   1 out of a maximum of    2
 All quantities printed in internal units (Hartrees-Bohrs-Radians)
 Second derivative matrix not updated -- analytic derivatives used.
 The second derivative matrix:
                          R1        R2        A1
           R1           0.54313
           R2          -0.00887   0.54313
           A1           0.03201   0.03201   0.15862
 ITU=  0
     Eigenvalues ---    0.15324   0.53964   0.55199
 Angle between quadratic step and forces=  18.75 degrees.
 Linear search not attempted -- first point.
 Iteration  1 RMS(Cart)=  0.00025359 RMS(Int)=  0.00000003
 Iteration  2 RMS(Cart)=  0.00000003 RMS(Int)=  0.00000000
 ClnCor:  largest displacement from symmetrization is 6.28D-16 for atom     1.
 Variable       Old X    -DE/DX   Delta X   Delta X   Delta X     New X
                                 (Linear)    (Quad)   (Total)
    R1        1.81632   0.00021   0.00000   0.00041   0.00041   1.81673
    R2        1.81632   0.00021   0.00000   0.00041   0.00041   1.81673
    A1        1.81726  -0.00001   0.00000  -0.00021  -0.00021   1.81705
         Item               Value     Threshold  Converged?
 Maximum Force            0.000212     0.000450     YES
 RMS     Force            0.000173     0.000300     YES
 Maximum Displacement     0.000245     0.001800     YES
 RMS     Displacement     0.000254     0.001200     YES
 Predicted change in Energy=-8.791587D-08
 Optimization completed.
    -- Stationary point found.
                           ----------------------------
                           !   Optimized Parameters   !
                           ! (Angstroms and Degrees)  !
 --------------------------                            --------------------------
 ! Name  Definition              Value          Derivative Info.                !
 --------------------------------------------------------------------------------
 ! R1    R(1,2)                  0.9612         -DE/DX =    0.0002              !
 ! R2    R(1,3)                  0.9612         -DE/DX =    0.0002              !
 ! A1    A(2,1,3)              104.1213         -DE/DX =    0.0                 !
 --------------------------------------------------------------------------------
 GradGradGradGradGradGradGradGradGradGradGradGradGradGradGradGradGradGrad


 ----------------------------------------------------------------------

 Electric dipole moment (input orientation):
 (Debye = 10**-18 statcoulomb cm , SI units = C m)
                  (au)            (Debye)         (10**-30 SI)
   Tot        0.731442D+00      0.185914D+01      0.620142D+01
   x          0.422148D+00      0.107299D+01      0.357912D+01
   y          0.597326D+00      0.151825D+01      0.506434D+01
   z          0.000000D+00      0.000000D+00      0.000000D+00

 Dipole polarizability, Alpha (input orientation).
 (esu units = cm**3 , SI units = C**2 m**2 J**-1)
 Alpha(0;0):
               (au)            (10**-24 esu)      (10**-40 SI)
   iso        0.960368D+01      0.142312D+01      0.158343D+01
   aniso      0.668706D+00      0.990920D-01      0.110255D+00
   xx         0.985930D+01      0.146100D+01      0.162558D+01
   yx        -0.218655D+00     -0.324013D-01     -0.360513D-01
   yy         0.970444D+01      0.143805D+01      0.160005D+01
   zx         0.000000D+00      0.000000D+00      0.000000D+00
   zy         0.000000D+00      0.000000D+00      0.000000D+00
   zz         0.924731D+01      0.137031D+01      0.152468D+01

 ----------------------------------------------------------------------

 Dipole orientation:
     8         -3.14854481          2.19976079         -0.81975860
     1         -1.97873901          1.37302377          0.29696184
     1         -4.31835062          3.02649782          0.29696184

 Electric dipole moment (dipole orientation):
 (Debye = 10**-18 statcoulomb cm , SI units = C m)
                  (au)            (Debye)         (10**-30 SI)
   Tot        0.731442D+00      0.185914D+01      0.620142D+01
   x          0.000000D+00      0.000000D+00      0.000000D+00
   y          0.000000D+00      0.000000D+00      0.000000D+00
   z          0.731442D+00      0.185914D+01      0.620142D+01

 Dipole polarizability, Alpha (dipole orientation).
 (esu units = cm**3 , SI units = C**2 m**2 J**-1)
 Alpha(0;0):
               (au)            (10**-24 esu)      (10**-40 SI)
   iso        0.960368D+01      0.142312D+01      0.158343D+01
   aniso      0.668706D+00      0.990920D-01      0.110255D+00
   xx         0.975850D+01      0.144606D+01      0.160896D+01
   yx        -0.361276D+00     -0.535355D-01     -0.595663D-01
   yy         0.950263D+01      0.140814D+01      0.156677D+01
   zx         0.000000D+00      0.000000D+00      0.000000D+00
   zy         0.000000D+00      0.000000D+00      0.000000D+00
   zz         0.954991D+01      0.141515D+01      0.157457D+01

 ----------------------------------------------------------------------
 Unable to Open any file for archive entry.
 1\1\GINC-NODE01\Freq\RMP2-FC\Aug-CC-pVTZ\H2O1\KAESER\21-Sep-2023\0\\#N
  Geom=AllCheck Guess=TCheck SCRF=Check GenChk RMP2(FC)/Aug-CC-pVTZ Fre
 q\\Title Card Required\\0,1\O,-1.9101645995,0.8187738678,0.0109812\H,-
 0.9500701058,0.8638720885,0.0109812\H,-2.1881392528,1.7388528744,0.010
 9812\\Version=ES64L-G16RevC.01\State=1-A1\HF=-76.0603002\MP2=-76.32899
 22\RMSD=2.142e-10\RMSF=1.341e-04\ZeroPoint=0.0214218\Thermal=0.0242572
 \ETot=-76.304735\HTot=-76.3037908\GTot=-76.3252139\Dipole=0.4221482,0.
 5973258,0.\DipoleDeriv=-0.4711191,0.0828933,0.,0.0828933,-0.412411,0.,
 0.,0.,-0.654991,0.1802135,-0.0709231,0.,-0.0511684,0.2615515,0.,0.,0.,
 0.3274955,0.2909056,-0.0119703,0.,-0.0317249,0.1508595,0.,0.,0.,0.3274
 955\Polar=9.8592955,-0.2186549,9.7044359,0.,0.,9.247308\PG=C02V [C2(O1
 ),SGV(H2)]\NImag=0\\0.60944912,-0.10912532,0.53216252,0.,0.,-0.0002397
 1,-0.52700021,0.00776287,0.,0.54368710,-0.05606141,-0.04380560,0.,0.00
 566664,0.04740240,0.,0.,0.00011986,0.,0.,-0.00011748,-0.08244890,0.101
 36246,0.,-0.01668688,0.05039477,0.,0.09913579,0.16518673,-0.48835691,0
 .,-0.01342950,-0.00359680,0.,-0.15175723,0.49195371,0.,0.,0.00011986,0
 .,0.,-0.00000237,0.,0.,-0.00011748\\0.00015450,0.00021861,0.,-0.000211
 91,-0.00001414,0.,0.00005741,-0.00020447,0.\\\@
 The archive entry for this job was punched.


 MAN IS THE MEASURE OF ALL THINGS.
  -- PROTAGORAS (5TH CENTURY B.C.)
 Job cpu time:       0 days  0 hours  0 minutes 56.9 seconds.
 Elapsed time:       0 days  0 hours  0 minutes 56.8 seconds.
 File lengths (MBytes):  RWF=    284 Int=      0 D2E=      0 Chk=      3 Scr=      1
 Normal termination of Gaussian 16 at Thu Sep 21 10:38:20 2023.
